22
Atoms. Timestep: 2000000
1 7.02201 8.31671 1.85216
2 6.95445 7.68713 0.964938
1 7.96152 7.34734 0.72314
1 6.61655 8.33442 0.15566
3 6.139 6.44082 1.12136
4 5.94936 6.04955 2.33566
5 5.79626 5.73135 0.00619232
6 6.15271 6.13262 -0.849393
2 4.89195 4.59059 -0.0675145
7 3.98014 4.6851 0.519611
2 4.31851 4.48264 -1.51567
1 3.40686 3.90667 -1.35676
1 3.91782 5.45565 -1.79991
1 5.07772 4.07473 -2.18299
3 5.51465 3.26792 0.35773
4 6.25084 2.6476 -0.478003
5 5.25332 2.72242 1.57435
6 4.62257 3.2066 2.1971
2 5.64499 1.39177 2.04321
7 5.63007 0.661563 1.2341
7 6.69698 1.48421 2.31316
7 5.0951 1.02432 2.90964
22
Atoms. Timestep: 2200000
1 4.55676 5.66882 -3.86567
2 5.59351 5.35559 -3.74266
1 6.25272 6.20849 -3.90425
1 5.82013 4.5538 -4.44543
3 5.85052 4.83949 -2.3576
4 6.82878 4.23813 -2.08617
5 4.8191 4.80556 -1.51705
6 4.04453 5.30982 -1.92431
2 4.89195 4.59059 -0.0675145
7 5.90113 4.79735 0.28765
2 4.04233 5.5976 0.628599
1 2.98126 5.36484 0.538877
1 4.31267 5.63298 1.68395
1 4.09316 6.54837 0.0979764
3 4.71089 3.07454 0.211859
4 4.7823 2.66162 1.3047
5 4.19886 2.23915 -0.744222
6 4.14309 2.57976 -1.69342
2 4.07785 0.749468 -0.518261
7 4.29423 0.620823 0.542273
7 3.08771 0.312951 -0.649301
7 4.76253 0.247005 -1.20152
22
Atoms. Timestep: 2400000
1 4.82354 5.95704 -4.04743
2 5.472 6.47864 -3.34348
1 5.39852 7.56538 -3.38469
1 6.52628 6.20549 -3.388
3 4.8853 6.06319 -2.05043
4 4.07683 6.85589 -1.52402
5 5.20972 4.83099 -1.52651
6 5.78698 4.13422 -1.97526
2 4.89195 4.59059 -0.0675145
7 4.54608 5.5253 0.373893
2 3.57807 3.69181 0.0907876
1 2.77579 4.19002 -0.453485
1 3.68038 2.70872 -0.368751
1 3.18202 3.68982 1.10629
3 6.16615 4.03962 0.665159
4 6.99356 3.33132 0.13536
5 6.16631 4.34544 2.03221
6 5.25006 4.60264 2.37049
2 7.23206 4.13085 3.04551
7 7.46696 5.02556 3.62206
7 7.03432 3.23813 3.63885
7 8.10569 3.89807 2.43666
22
Atoms. Timestep: 2600000
1 5.27812 8.41574 -1.93744
2 4.56804 8.21563 -1.13504
1 3.56651 8.11637 -1.5536
1 4.70057 9.13727 -0.568374
3 4.92953 7.02627 -0.384869
4 5.3998 7.12079 0.766377
5 4.76646 5.79815 -0.898236
6 4.47436 5.66942 -1.85647
2 4.89195 4.59059 -0.0675145
7 4.44163 4.91428 0.868737
2 3.97885 3.6511 -0.763445
1 4.20117 3.61043 -1.82976
1 4.23479 2.66488 -0.376185
1 2.91081 3.79007 -0.595886
3 6.33284 4.11587 0.0585467
4 6.86105 3.43058 -0.797818
5 7.01661 4.3938 1.15744
6 6.58321 5.11042 1.722
2 8.43746 4.17391 1.35377
7 8.77312 3.15256 1.17412
7 8.90958 4.80964 0.604735
7 8.85474 4.40294 2.33434
22
Atoms. Timestep: 2800000
1 7.82451 6.90819 1.19278
2 6.98707 7.19032 1.83091
1 6.63271 8.18723 1.5688
1 7.18159 7.12289 2.90129
3 5.84312 6.29564 1.40075
4 4.90752 6.23856 2.1604
5 5.92491 5.55241 0.297076
6 6.78832 5.51349 -0.225532
2 4.89195 4.59059 -0.0675145
7 4.36625 4.33536 0.849647
2 3.78516 5.17418 -1.06052
1 2.91416 4.52541 -0.968123
1 3.53678 6.11235 -0.564288
1 4.25829 5.46357 -1.99887
3 5.67776 3.35822 -0.64657
4 6.6605 3.43135 -1.37059
5 5.05762 2.21277 -0.414317
6 4.26081 2.19395 0.206026
2 5.60896 0.879898 -0.745582
7 6.69153 0.979383 -0.824564
7 5.43812 0.18018 0.0725311
7 5.17636 0.647033 -1.71858
22
Atoms. Timestep: 3000000
1 8.50209 7.25364 0.849228
2 7.64028 7.23726 0.182061
1 7.87092 7.30716 -0.880964
1 7.05659 8.13938 0.365361
3 6.61489 6.06316 0.561453
4 6.79646 5.4157 1.63833
5 5.67861 5.79226 -0.357215
6 5.58696 6.34517 -1.19744
2 4.89195 4.59059 -0.0675145
7 4.37587 4.63721 0.888911
2 3.69831 4.60843 -1.18896
1 4.07221 4.86626 -2.17983
1 3.06296 3.72435 -1.13574
1 2.9854 5.38842 -0.921617
3 5.73634 3.32942 -0.132746
4 5.76975 2.7147 -1.20315
5 6.23901 2.78282 0.986091
6 6.61448 3.38839 1.70192
2 6.8848 1.39859 1.02131
7 7.57145 1.35039 1.86647
7 6.18905 0.56993 0.889546
7 7.43507 1.28024 0.0878822
22
Atoms. Timestep: 3200000
1 6.03576 8.77135 0.898781
2 5.21099 8.22409 0.44232
1 5.25934 8.479 -0.616348
1 4.36612 8.58982 1.02587
3 5.59003 6.85319 0.504763
4 6.79708 6.58083 0.527175
5 4.6423 5.9451 0.334161
6 3.69448 6.28783 0.399448
2 4.89195 4.59059 -0.0675145
7 5.75007 4.69123 -0.735055
2 5.27809 3.81266 1.29999
1 5.59625 2.79913 1.05579
1 6.15272 4.26935 1.76319
1 4.50944 3.78931 2.07249
3 3.68705 4.0157 -0.771166
4 2.64879 4.64289 -1.02083
5 3.6339 2.72296 -0.677081
6 4.40387 2.15972 -0.34543
2 2.34315 2.05902 -0.694296
7 1.88988 2.2453 0.279332
7 1.75769 2.54123 -1.47712
7 2.47287 0.995549 -0.895054
22
Atoms. Timestep: 3400000
1 4.25026 8.84494 1.65089
2 4.23906 7.84624 2.08745
1 3.33374 7.47662 2.56898
1 5.13503 7.845 2.70821
3 4.42012 6.83799 0.813112
4 4.20232 7.17863 -0.350772
5 4.88386 5.55471 1.06064
6 4.85928 5.20352 2.00729
2 4.89195 4.59059 -0.0675145
7 4.05121 4.75095 -0.744966
2 6.1509 4.68872 -0.911191
1 6.02758 5.53174 -1.59105
1 6.91531 5.05656 -0.226746
1 6.19345 3.81388 -1.56
3 4.54415 3.18546 0.505469
4 4.21741 3.02395 1.73472
5 4.86219 2.17845 -0.280592
6 5.33605 2.47607 -1.12142
2 4.34496 0.789318 -0.313973
7 4.17881 0.625882 -1.37877
7 4.9344 -0.095554 -0.0738456
7 3.47472 0.691185 0.335001
22
Atoms. Timestep: 3600000
1 1.44637 7.52153 -1.03734
2 2.40645 7.19409 -1.43624
1 3.176 7.96453 -1.48436
1 2.19409 6.86363 -2.453
3 2.88686 5.91136 -0.689385
4 2.14526 5.07957 -0.301683
5 4.14417 5.80643 -0.377116
6 4.72102 6.46885 -0.875646
2 4.89195 4.59059 -0.0675145
7 4.40254 3.64064 -0.278794
2 6.2179 4.36476 -0.90741
1 6.89496 5.18876 -0.682203
1 6.62523 3.41127 -0.571204
1 5.89224 4.57091 -1.92699
3 5.12633 4.55261 1.44618
4 6.2553 4.17969 1.85479
5 4.24694 4.85937 2.35655
6 3.39755 5.28275 2.01104
2 4.3389 4.53583 3.77818
7 5.12708 5.15977 4.19956
7 3.41964 4.6516 4.35234
7 4.65989 3.50067 3.89439
22
Atoms. Timestep: 3800000
1 5.84783 7.82381 -2.59128
2 5.57266 7.96556 -1.54616
1 4.53081 8.24897 -1.69555
1 6.18824 8.77777 -1.15953
3 5.8079 6.83285 -0.694149
4 6.3713 7.13054 0.338272
5 5.02636 5.77533 -0.923784
6 4.81411 5.70477 -1.90871
2 4.89195 4.59059 -0.0675145
7 5.75175 4.38835 0.568633
2 3.77364 4.95498 0.870944
1 2.92094 5.37349 0.336292
1 3.57499 4.09199 1.50646
1 4.10211 5.68663 1.60912
3 4.54165 3.44205 -0.962805
4 3.92314 3.72092 -2.03738
5 4.95655 2.24169 -0.619516
6 5.36253 2.05136 0.2855
2 4.8003 1.0515 -1.51031
7 4.87539 0.135316 -0.924598
7 3.87211 1.1884 -2.06513
7 5.57735 1.12881 -2.27079
22
Atoms. Timestep: 4000000
1 3.10448 8.47552 0.332123
2 2.75189 7.49815 0.661578
1 1.67022 7.45958 0.790394
1 3.11208 7.41511 1.68699
3 3.24551 6.26753 0.0171713
4 2.42363 5.58407 -0.563423
5 4.47698 5.92612 0.256878
6 5.04394 6.37386 0.962695
2 4.89195 4.59059 -0.0675145
7 4.26159 4.16456 -0.8497
2 6.36153 4.50015 -0.504546
1 6.67081 3.48947 -0.770984
1 6.47101 5.2293 -1.30732
1 6.98672 4.69986 0.365717
3 4.48666 3.57463 1.00539
4 4.04568 4.03011 2.09011
5 4.55424 2.29233 0.684739
6 4.81869 2.01672 -0.250249
2 4.35497 1.18408 1.65771
7 3.74555 0.323491 1.38188
7 5.33364 0.857945 2.00975
7 3.83175 1.63953 2.49849
22
Atoms. Timestep: 4200000
1 4.15902 8.29002 -2.19243
2 4.56397 8.2283 -1.18232
1 4.39592 8.989 -0.419958
1 5.63064 8.08759 -1.35701
3 4.14675 6.93089 -0.540323
4 3.03639 6.77175 -0.0479281
5 5.00538 5.89827 -0.732751
6 5.80068 5.9136 -1.35513
2 4.89195 4.59059 -0.0675145
7 4.57686 4.71004 0.966701
2 4.11233 3.62483 -0.991869
1 3.51434 4.24906 -1.65583
1 4.82669 2.93913 -1.44751
1 3.47969 2.9708 -0.391774
3 6.37005 4.1236 0.171
4 7.29377 4.61542 -0.451207
5 6.48786 3.07928 1.06019
6 5.69848 2.52518 1.36009
2 7.79193 2.5702 1.52946
7 7.73961 2.64984 2.61529
7 7.92674 1.51535 1.29023
7 8.60413 3.15838 1.1023
22
Atoms. Timestep: 4400000
1 4.78559 5.92452 -4.43814
2 4.30585 5.12243 -3.87725
1 4.32258 4.08028 -4.19622
1 3.27021 5.46147 -3.8527
3 5.01426 5.05331 -2.45152
4 6.2182 5.49885 -2.2622
5 4.3295 4.52282 -1.42059
6 3.41451 4.16271 -1.65128
2 4.89195 4.59059 -0.0675145
7 5.37825 5.55771 0.0680717
2 3.67662 4.5625 0.913996
1 4.16039 4.77573 1.8672
1 3.1112 5.41085 0.528377
1 3.05061 3.67058 0.887506
3 5.79178 3.41352 0.259458
4 5.50504 2.25065 0.16383
5 7.06595 3.83999 0.327635
6 7.25971 4.79894 0.0766854
2 8.15747 3.00304 0.77122
7 8.81243 3.7398 1.23633
7 7.70355 2.27115 1.43935
7 8.66906 2.55207 -0.0790721
22
Atoms. Timestep: 4600000
1 3.22221 5.59298 -3.68808
2 2.88934 4.61923 -3.32879
1 3.09043 3.88323 -4.10723
1 1.8104 4.5361 -3.19807
3 3.43983 4.15479 -1.99827
4 2.94203 3.17 -1.4681
5 4.50261 4.82106 -1.42756
6 4.92851 5.50517 -2.03641
2 4.89195 4.59059 -0.0675145
7 4.47012 3.65089 0.283053
2 6.40557 4.32964 -0.0390943
1 6.82119 4.05628 0.930766
1 6.72962 3.69643 -0.865005
1 6.90335 5.27811 -0.240867
3 4.45543 5.72152 0.884998
4 4.30476 6.78006 0.454506
5 3.89818 5.28019 2.04654
6 4.02916 4.30225 2.26239
2 2.9025 6.08772 2.78278
7 2.69724 6.90504 2.09144
7 2.11707 5.37616 3.0375
7 3.50917 6.46034 3.60813
22
Atoms. Timestep: 4800000
1 2.32728 5.3141 -3.7825
2 2.41296 5.69868 -2.76621
1 1.47241 5.90637 -2.25598
1 2.7665 6.72136 -2.8975
3 3.28546 4.76644 -1.88147
4 3.45241 3.56082 -2.21278
5 3.84009 5.31726 -0.851597
6 3.44863 6.16607 -0.469012
2 4.89195 4.59059 -0.0675145
7 4.70135 3.51992 -0.121704
2 6.30537 4.98745 -0.444632
1 6.48876 4.47118 -1.38693
1 6.39616 6.05496 -0.645319
1 6.96788 4.61 0.334284
3 4.54849 4.78076 1.33131
4 4.26621 5.91753 1.75384
5 4.64865 3.74526 2.22463
6 4.78885 2.85065 1.77729
2 4.29079 3.76533 3.66395
7 3.73539 4.68442 3.85079
7 3.5671 2.96491 3.8179
7 5.17864 3.64494 4.28469
22
Atoms. Timestep: 5000000
1 9.35888 5.67839 -0.442407
2 8.71295 4.85335 -0.742693
1 8.9808 4.02095 -0.0919419
1 8.9845 4.69778 -1.7868
3 7.25328 5.26122 -0.523061
4 7.00529 6.40485 -0.359139
5 6.28465 4.31051 -0.429839
6 6.61847 3.38006 -0.637044
2 4.89195 4.59059 -0.0675145
7 4.65345 5.58411 -0.452849
2 3.94258 3.58528 -0.662668
1 4.18698 3.34409 -1.69717
1 4.05866 2.56283 -0.303188
1 2.92893 3.90736 -0.901179
3 4.64548 4.76139 1.44052
4 3.79512 4.1222 1.99574
5 5.30085 5.63969 2.12681
6 5.97928 6.12962 1.5613
2 5.05291 6.11266 3.50039
7 5.62327 5.55512 4.24332
7 5.3445 7.13719 3.73148
7 3.99212 6.10545 3.75092
22
Atoms. Timestep: 5200000
1 4.39807 0.237081 -1.89973
2 4.19496 0.803334 -0.99077
1 4.43458 0.226879 -0.0972477
1 3.15014 1.08145 -0.852568
3 5.0598 2.06162 -0.869288
4 6.25867 1.97406 -1.20777
5 4.50972 3.20527 -0.386551
6 3.55176 3.09396 -0.0865281
2 4.89195 4.59059 -0.0675145
7 5.97928 4.65789 -0.0254894
2 4.47892 5.3958 -1.26295
1 5.12326 6.26676 -1.38272
1 4.6393 4.87604 -2.20753
1 3.39845 5.51502 -1.18243
3 4.1384 5.2379 1.09438
4 3.05081 4.75364 1.41682
5 4.71719 6.31199 1.61129
6 5.61207 6.59027 1.23466
2 4.40586 7.21844 2.6415
7 4.71743 8.2213 2.34945
7 3.34494 7.1099 2.86682
7 4.88573 6.9872 3.59247
22
Atoms. Timestep: 5400000
1 2.49424 0.843461 -0.247974
2 2.42325 1.84063 -0.682395
1 1.70634 2.38505 -0.0677967
1 2.13565 1.71345 -1.72605
3 3.68869 2.52157 -0.503467
4 4.66678 1.75878 -0.408378
5 3.66913 3.84229 -0.497997
6 2.88634 4.46935 -0.616948
2 4.89195 4.59059 -0.0675145
7 5.71033 4.17337 -0.656233
2 4.76262 5.98287 -0.473692
1 4.68761 6.65289 0.382778
1 5.70292 6.23738 -0.962728
1 3.94289 6.10571 -1.18154
3 4.96785 4.35266 1.46373
4 4.04924 4.74717 2.24573
5 6.09742 3.64107 1.91653
6 6.74537 3.32493 1.2092
2 6.44848 3.46082 3.3772
7 7.00438 2.53288 3.51138
7 7.28894 4.11555 3.60755
7 5.53446 3.43878 3.97064
22
Atoms. Timestep: 5600000
1 6.28226 3.73961 -3.65888
2 5.26104 3.36336 -3.5984
1 5.44722 2.34719 -3.25078
1 4.72487 3.43946 -4.54435
3 4.72944 4.30653 -2.57097
4 3.76226 5.07741 -2.69704
5 5.24875 4.04338 -1.3674
6 5.82564 3.2149 -1.3369
2 4.89195 4.59059 -0.0675145
7 4.32326 5.51641 -0.168204
2 4.00705 3.52679 0.606386
1 4.65369 2.6564 0.717629
1 3.81022 3.89257 1.61414
1 3.14098 3.31477 -0.0205625
3 6.17 4.80955 0.929963
4 7.26775 4.21659 0.626923
5 6.07315 5.67399 1.99227
6 5.21059 6.19652 2.04735
2 6.98792 5.97082 2.99666
7 6.76601 5.56768 3.98476
7 7.93672 5.57518 2.63424
7 7.25606 7.02703 3.0215
22
Atoms. Timestep: 5800000
1 2.05719 3.94602 -3.30143
2 2.60023 4.85105 -3.02916
1 1.95387 5.6929 -2.78096
1 3.36591 5.25545 -3.6912
3 3.13868 4.41758 -1.68517
4 2.40191 3.64151 -1.03972
5 4.38181 4.90192 -1.39552
6 5.01759 5.49942 -1.90432
2 4.89195 4.59059 -0.0675145
7 4.37668 3.73084 0.355556
2 6.33692 4.1456 -0.32929
1 6.83604 4.87959 -0.96194
1 6.92244 4.05378 0.585502
1 6.41175 3.15848 -0.785463
3 4.5657 5.79246 0.937064
4 4.49757 6.9334 0.435681
5 4.40795 5.53727 2.28992
6 4.61632 4.6138 2.64188
2 3.99068 6.62449 3.25656
7 2.98221 6.40163 3.60503
7 4.68359 6.55424 4.09504
7 4.01514 7.57284 2.71978
22
Atoms. Timestep: 6000000
1 6.59206 7.00341 -2.77277
2 6.00056 6.33488 -3.3983
1 6.6324 5.7856 -4.09628
1 5.28467 6.88158 -4.01209
3 5.30394 5.29526 -2.42594
4 4.27781 4.74446 -2.85239
5 5.705 5.24924 -1.12793
6 6.29932 6.00317 -0.81413
2 4.89195 4.59059 -0.0675145
7 3.89364 5.02896 -0.0710395
2 4.71872 3.04781 -0.233779
1 3.71429 2.65825 -0.0680289
1 4.81516 2.91936 -1.31188
1 5.52953 2.54991 0.297988
3 5.49116 4.93716 1.26702
4 6.7005 5.28217 1.30891
5 4.71288 4.83833 2.34302
6 3.71483 4.69172 2.29305
2 5.49459 4.5291 3.5507
7 4.89796 4.86662 4.39817
7 5.43888 3.49034 3.87623
7 6.4728 5.0081 3.5089
22
Atoms. Timestep: 6200000
1 2.08597 1.97305 -1.47168
2 2.67913 2.52023 -2.20438
1 1.96987 2.65348 -3.02125
1 3.53237 1.87339 -2.40856
3 3.23011 3.83521 -1.65881
4 2.48596 4.86306 -1.72249
5 4.35875 3.69609 -1.03837
6 4.62244 2.72132 -1.01845
2 4.89195 4.59059 -0.0675145
7 5.80332 4.0293 0.133676
2 5.13028 5.94948 -0.664565
1 6.09385 6.01628 -1.16971
1 4.3636 6.29908 -1.356
1 5.19714 6.66925 0.151257
3 4.12161 4.58052 1.22025
4 4.54581 3.87882 2.14465
5 3.01018 5.3487 1.2284
6 2.83302 5.82167 0.353749
2 1.96934 5.37336 2.29838
7 2.32409 4.7558 3.12353
7 1.825 6.41487 2.58565
7 1.00126 5.05208 1.91408
22
Atoms. Timestep: 6400000
1 6.65746 0.416289 -0.591167
2 6.82239 1.44085 -0.924586
1 6.84959 1.35298 -2.0107
1 7.73346 1.88825 -0.527233
3 5.62027 2.37642 -0.632681
4 4.50613 2.06168 -0.600501
5 5.91041 3.6495 -0.559156
6 6.81659 3.91006 -0.921171
2 4.89195 4.59059 -0.0675145
7 5.42973 5.50142 0.19811
2 4.01254 5.16479 -1.18635
1 3.51169 6.06608 -0.832874
1 4.57073 5.45495 -2.07648
1 3.27272 4.46386 -1.57296
3 4.22366 4.39 1.30458
4 4.66443 4.9646 2.26661
5 3.09157 3.76901 1.27396
6 2.89144 3.26522 0.421761
2 2.2713 3.45392 2.45306
7 1.36074 2.98094 2.08526
7 2.81137 2.80428 3.14182
7 2.17379 4.42596 2.93651
22
Atoms. Timestep: 6600000
1 7.45462 1.74002 -0.724479
2 6.58411 1.11872 -0.93493
1 6.75936 0.244391 -0.308082
1 6.62189 0.80386 -1.97778
3 5.39844 2.07068 -0.489271
4 4.33899 1.63973 -0.0507405
5 5.65889 3.35676 -0.43727
6 6.64499 3.5612 -0.514188
2 4.89195 4.59059 -0.0675145
7 5.60587 5.35871 -0.37121
2 3.52502 4.573 -0.817304
1 3.53367 4.08574 -1.79229
1 2.85152 4.13395 -0.081281
1 3.2422 5.60277 -1.03569
3 4.79009 4.73518 1.38987
4 4.49642 5.84008 1.81679
5 4.95466 3.69456 2.17607
6 5.22132 2.89903 1.61381
2 4.97903 3.66066 3.64609
7 4.64512 4.64871 3.96289
7 4.20457 2.95417 3.94473
7 5.9592 3.39577 4.04257
22
Atoms. Timestep: 6800000
1 8.73175 5.12263 -1.67197
2 8.21128 4.24732 -2.0606
1 8.89439 3.41306 -2.22015
1 7.95786 4.49844 -3.09056
3 7.15624 3.98651 -1.04705
4 7.3865 3.29108 -0.12852
5 5.98925 4.63456 -1.04228
6 5.83117 5.18367 -1.8751
2 4.89195 4.59059 -0.0675145
7 4.27872 5.43179 -0.396021
2 4.09168 3.23136 -0.121196
1 4.77044 2.3799 -0.072186
1 3.49649 3.28564 0.79034
1 3.49908 3.00817 -1.00839
3 5.12893 4.91651 1.35556
4 4.23295 5.57784 1.86781
5 6.3147 4.72463 1.91692
6 6.95464 4.17645 1.36008
2 6.61811 4.94294 3.28408
7 7.18397 5.86231 3.43459
7 5.65961 5.06049 3.78961
7 7.19627 4.1087 3.68143
22
Atoms. Timestep: 7000000
1 8.43572 6.93697 -1.54782
2 7.4392 6.63417 -1.86932
1 7.47596 5.89039 -2.66527
1 7.12585 7.61512 -2.22658
3 6.40891 6.36417 -0.866624
4 6.13421 7.16075 -0.046159
5 5.89377 5.10575 -0.995301
6 6.21805 4.55085 -1.77441
2 4.89195 4.59059 -0.0675145
7 4.13505 5.36714 0.0474714
2 4.00535 3.5924 -0.80899
1 3.75069 4.10475 -1.73675
1 4.51912 2.63656 -0.91154
1 3.07308 3.43581 -0.266364
3 5.56372 3.99553 1.20123
4 5.97154 2.89749 1.17034
5 5.64818 4.86476 2.21985
6 5.38491 5.82646 2.05889
2 6.37818 4.6413 3.46004
7 6.57511 3.58178 3.62355
7 7.33425 5.16478 3.45688
7 5.86902 5.00706 4.3517
22
Atoms. Timestep: 7200000
1 7.24733 5.06424 -3.50362
2 6.50516 5.83236 -3.28615
1 6.18103 6.06926 -4.29952
1 7.00962 6.7423 -2.96116
3 5.44833 5.21044 -2.45422
4 4.63289 4.46148 -2.98501
5 5.68633 5.33821 -1.13503
6 6.27332 6.08691 -0.795925
2 4.89195 4.59059 -0.0675145
7 4.85709 3.5422 -0.361827
2 5.71684 4.54489 1.20232
1 5.40562 3.76496 1.89728
1 6.76243 4.56578 0.895092
1 5.63077 5.53505 1.64984
3 3.42253 5.0484 0.188412
4 3.13987 5.82354 1.16848
5 2.4524 4.59541 -0.67638
6 2.86608 4.25518 -1.53266
2 0.99504 4.89297 -0.513624
7 0.372908 4.28778 -1.17302
7 0.716893 4.54549 0.48136
7 0.81325 5.96625 -0.569331
22
Atoms. Timestep: 7400000
1 8.70505 4.83613 -2.465
2 7.63861 5.00136 -2.6183
1 7.28914 4.36729 -3.43312
1 7.42681 6.06776 -2.69596
3 7.06117 4.59229 -1.36228
4 7.7273 4.31451 -0.33809
5 5.72991 4.58811 -1.32413
6 5.29384 4.56315 -2.2348
2 4.89195 4.59059 -0.0675145
7 5.53383 4.9152 0.749685
2 3.95217 5.74649 -0.150524
1 3.4145 5.77501 0.797211
1 4.50643 6.67069 -0.31407
1 3.16431 5.68425 -0.901193
3 4.30369 3.24317 0.293648
4 3.10705 3.13778 0.123357
5 5.1321 2.21206 0.669903
6 6.08239 2.47139 0.893045
2 4.82135 0.776123 0.98818
7 3.79928 0.41345 0.878917
7 5.45247 0.212501 0.301071
7 5.25026 0.438324 1.9316
22
Atoms. Timestep: 7600000
1 2.89971 8.35309 -1.54306
2 3.96051 8.15009 -1.39614
1 4.53102 8.89649 -0.843396
1 4.64719 7.99493 -2.2283
3 3.90233 6.94332 -0.574131
4 3.31915 7.01406 0.488964
5 4.69481 5.89967 -0.869724
6 5.07386 5.92591 -1.80553
2 4.89195 4.59059 -0.0675145
7 3.93084 4.28504 0.342164
2 5.54275 3.54828 -1.03499
1 5.20455 3.61505 -2.06904
1 6.57127 3.88077 -0.894648
1 5.6553 2.52627 -0.673172
3 5.77372 4.99955 1.19574
4 6.96238 5.23844 1.26525
5 5.13529 4.95659 2.32379
6 4.15423 5.03733 2.09773
2 5.53437 5.52416 3.67865
7 6.50658 6.01329 3.7391
7 4.74655 6.20709 3.99654
7 5.57614 4.74937 4.44419
22
Atoms. Timestep: 7800000
1 3.63693 8.95936 -0.844304
2 4.57595 8.51747 -0.511024
1 5.06629 9.02948 0.316933
1 5.35933 8.32436 -1.24391
3 4.26605 7.00196 -0.216922
4 3.18451 6.65439 0.222918
5 5.22074 6.08418 -0.152615
6 6.09772 6.47292 -0.468668
2 4.89195 4.59059 -0.0675145
7 4.14985 4.42531 0.710647
2 4.45929 4.11522 -1.47727
1 4.49258 3.03082 -1.58245
1 3.40683 4.36042 -1.61981
1 5.02498 4.6764 -2.22103
3 6.06805 3.71919 0.448171
4 7.10821 3.87318 -0.0835754
5 5.84922 2.83628 1.45434
6 5.03225 2.95376 2.03646
2 6.86339 1.80955 1.83948
7 6.56549 1.23297 2.71522
7 6.70079 1.09291 1.03444
7 7.93333 2.00824 1.77748
22
Atoms. Timestep: 8000000
1 1.97431 6.75363 1.54426
2 2.24524 7.25348 0.614292
1 2.77018 8.18814 0.811642
1 1.29111 7.41022 0.11113
3 3.2244 6.27025 -0.0683982
4 3.39121 6.50541 -1.24738
5 3.74825 5.23879 0.568183
6 3.47689 4.86459 1.4662
2 4.89195 4.59059 -0.0675145
7 4.89993 4.67999 -1.15641
2 6.12686 5.22506 0.554874
1 6.34258 4.84537 1.55358
1 6.91572 4.94931 -0.144966
1 6.09635 6.30081 0.381863
3 5.01903 3.08846 0.334513
4 4.6602 2.63826 1.41183
5 5.73423 2.34913 -0.563245
6 5.91841 2.77076 -1.46236
2 6.01985 0.937339 -0.565037
7 5.0648 0.54785 -0.917561
7 6.87058 0.739488 -1.21712
7 6.32331 0.537213 0.402389
22
Atoms. Timestep: 8200000
1 6.20199 8.8947 1.03085
2 6.33151 8.03229 0.376963
1 7.3666 7.73533 0.545779
1 6.16205 8.26013 -0.675402
3 5.51894 6.87139 0.781715
4 4.71976 6.8246 1.65598
5 5.70785 5.81938 0.0142473
6 6.29946 6.03367 -0.775803
2 4.89195 4.59059 -0.0675145
7 3.90439 5.01823 0.105065
2 4.9918 3.92332 -1.4417
1 4.02864 3.48833 -1.70854
1 5.15105 4.68966 -2.20029
1 5.78794 3.17913 -1.46257
3 5.28773 3.67405 1.08395
4 6.47733 3.48981 1.32952
5 4.28127 2.9806 1.67687
6 3.29382 3.00069 1.46558
2 4.33401 2.28821 2.97827
7 3.88043 2.8416 3.80054
7 3.79614 1.34145 2.92888
7 5.38276 2.00899 3.07959
22
Atoms. Timestep: 8400000
1 7.89563 6.45031 2.71341
2 7.82604 5.88339 1.78505
1 8.56534 5.08253 1.79668
1 7.99248 6.61734 0.996561
3 6.47896 5.43572 1.66851
4 5.66264 5.67803 2.52669
5 6.1759 4.81572 0.451063
6 6.95539 4.67599 -0.175815
2 4.89195 4.59059 -0.0675145
7 4.13769 5.2645 0.337945
2 5.21143 4.7448 -1.62547
1 5.40447 5.8094 -1.75763
1 5.89933 3.9871 -2.00067
1 4.37137 4.49857 -2.27491
3 4.49963 3.1275 0.383837
4 4.79532 2.11653 -0.352565
5 3.80779 2.96327 1.54679
6 3.97706 3.7589 2.14547
2 3.42926 1.66257 2.11405
7 4.36517 1.28215 2.52326
7 2.72385 1.69475 2.94439
7 3.09129 0.842318 1.48076
22
Atoms. Timestep: 8600000
1 7.77898 7.7286 -1.65795
2 6.77994 7.61 -1.23849
1 5.9995 7.72396 -1.99084
1 6.75649 8.38557 -0.472951
3 6.65891 6.16067 -0.716316
4 7.60739 5.50641 -0.336353
5 5.41109 5.85124 -0.540721
6 4.76053 6.59559 -0.747626
2 4.89195 4.59059 -0.0675145
7 5.70597 3.8793 -0.204903
2 4.66093 4.80988 1.40548
1 4.32235 3.92931 1.95143
1 5.6233 5.05256 1.85608
1 3.88824 5.54703 1.62378
3 3.58602 4.21726 -0.861147
4 2.84088 5.0956 -1.32476
5 3.38692 2.95583 -1.17744
6 3.95479 2.28511 -0.67968
2 2.49217 2.31274 -2.14343
7 1.58903 2.32181 -1.53323
7 2.45059 2.81395 -3.11047
7 2.63277 1.23664 -2.24508
22
Atoms. Timestep: 8800000
1 2.07282 7.07226 1.484
2 2.91628 7.72928 1.27186
1 3.51385 7.9603 2.1537
1 2.66335 8.72497 0.907551
3 3.82423 6.96653 0.194778
4 4.0134 7.42107 -0.945102
5 4.10219 5.63302 0.511231
6 3.64164 5.33389 1.35889
2 4.89195 4.59059 -0.0675145
7 5.70549 5.15513 -0.527614
2 5.53737 3.88572 1.15288
1 6.41099 4.44088 1.49449
1 4.76317 3.53523 1.83544
1 5.89229 2.92681 0.775219
3 4.29135 3.89104 -1.2107
4 4.36525 2.66519 -1.46267
5 3.60291 4.68325 -2.07126
6 3.78042 5.67319 -1.97845
2 2.60241 4.16611 -3.07007
7 3.12842 3.77668 -3.94172
7 1.9635 3.44197 -2.56459
7 2.08415 5.07825 -3.36588
22
Atoms. Timestep: 9000000
1 3.38388 8.34891 0.709244
2 3.36632 7.66041 1.55409
1 2.30927 7.49664 1.76367
1 3.63947 8.30279 2.39125
3 4.16697 6.33304 1.34971
4 4.64188 5.83124 2.31689
5 4.17401 5.84537 0.103079
6 3.79644 6.27962 -0.726958
2 4.89195 4.59059 -0.0675145
7 5.76974 4.65156 0.57379
2 3.98958 3.40737 0.256744
1 3.15324 3.42776 -0.441978
1 4.4819 2.43604 0.304117
1 3.68941 3.62483 1.28178
3 5.38626 4.40287 -1.54775
4 5.11656 5.12007 -2.46609
5 6.25574 3.39624 -1.75803
6 6.40768 2.71736 -1.02582
2 6.71284 2.85782 -3.0512
7 7.66472 3.27044 -3.38552
7 6.90571 1.78579 -3.01059
7 5.96093 3.17749 -3.77269
22
Atoms. Timestep: 9200000
1 3.43486 7.54265 2.21446
2 2.8539 7.65201 1.2987
1 2.62651 8.61694 0.845602
1 1.92337 7.10207 1.43939
3 3.44091 6.61409 0.230191
4 3.06507 6.72753 -0.8577
5 4.27212 5.7065 0.626791
6 4.39592 5.62888 1.62616
2 4.89195 4.59059 -0.0675145
7 4.41395 4.4842 -1.04356
2 6.41841 4.79184 -0.355875
1 6.95363 5.01414 0.567284
1 6.78541 3.8219 -0.691492
1 6.53505 5.60304 -1.07451
3 4.62617 3.20063 0.600508
4 4.03855 3.23038 1.67477
5 5.11141 2.04485 0.0367013
6 5.52008 2.06522 -0.8867
2 4.92906 0.81321 0.708589
7 3.89057 0.544567 0.902192
7 5.46385 -0.0603123 0.335682
7 5.37415 0.874831 1.70166
22
Atoms. Timestep: 9400000
1 4.01484 7.24571 2.9579
2 4.17535 7.72915 1.99425
1 5.24557 7.91107 1.89616
1 3.49966 8.57125 1.84457
3 4.05582 6.63168 0.932695
4 3.3833 6.76708 -0.0227167
5 4.74044 5.51281 1.03944
6 5.01286 5.20459 1.96187
2 4.89195 4.59059 -0.0675145
7 4.84736 5.12531 -1.0195
2 6.23991 3.92533 0.0821685
1 7.02266 4.68127 0.0191901
1 6.37661 3.37302 1.01188
1 6.25312 3.21803 -0.747087
3 3.75759 3.51872 -0.00296864
4 3.84736 2.38271 -0.563793
5 2.50302 3.77372 0.54431
6 2.21844 4.71805 0.761938
2 1.38227 2.77933 0.599002
7 1.08971 2.4985 -0.412751
7 1.68836 1.8958 1.15917
7 0.523247 3.26921 1.05748
22
Atoms. Timestep: 9600000
1 4.67162 6.63773 3.14666
2 4.04625 7.25751 2.50411
1 4.4511 8.26314 2.39055
1 3.06963 7.10047 2.96199
3 4.0344 6.54633 1.198
4 3.37821 6.92313 0.258805
5 4.75285 5.40396 1.10121
6 5.42027 5.11721 1.80293
2 4.89195 4.59059 -0.0675145
7 5.13804 5.19027 -0.947246
2 6.00735 3.60861 0.245869
1 5.63675 3.01564 1.08201
1 6.29717 3.03692 -0.635765
1 6.92725 4.15042 0.465733
3 3.64381 3.85501 -0.593859
4 3.78166 2.65272 -0.937953
5 2.43534 4.47708 -0.721133
6 2.35138 5.43503 -0.412273
2 1.27968 3.75481 -1.20272
7 1.46459 2.68086 -1.22584
7 0.546605 3.964 -0.423655
7 0.980229 4.18915 -2.15655
22
Atoms. Timestep: 9800000
1 5.36149 9.28362 0.718587
2 4.66078 8.47455 0.512373
1 3.96901 8.76751 -0.277393
1 4.13147 8.18136 1.419
3 5.30562 7.17302 -0.0874674
4 6.41156 7.19022 -0.689426
5 4.60052 6.03945 0.128767
6 3.66094 6.28621 0.405168
2 4.89195 4.59059 -0.0675145
7 5.8185 4.45435 0.487811
2 3.78133 3.80425 0.702109
1 3.57059 4.29483 1.65238
1 2.84896 3.73893 0.141287
1 4.09682 2.78082 0.904975
3 4.97102 4.12235 -1.52233
4 4.22084 3.2951 -2.07263
5 5.96251 4.58572 -2.30416
6 6.64988 5.18235 -1.8664
2 6.17411 4.18627 -3.71787
7 5.59862 4.58999 -4.55089
7 7.16039 4.54311 -4.01454
7 6.30573 3.12942 -3.9499
22
Atoms. Timestep: 10000000
1 4.79495 5.97289 4.2138
2 4.20753 5.70722 3.33491
1 3.58699 6.51767 2.95253
1 3.43546 4.98343 3.59594
3 5.12952 5.29027 2.20681
4 6.10123 5.97705 1.98702
5 4.59871 4.41377 1.30937
6 3.73242 3.96894 1.57729
2 4.89195 4.59059 -0.0675145
7 5.93376 4.30959 -0.22372
2 4.00677 3.53056 -0.81683
1 2.93255 3.71517 -0.825581
1 4.47377 3.40497 -1.79368
1 4.14043 2.54746 -0.365447
3 4.41904 5.97821 -0.454179
4 3.29124 6.31311 -0.10555
5 5.19536 6.70842 -1.16661
6 6.08739 6.26531 -1.33403
2 5.12724 8.10031 -1.67195
7 4.2381 8.53022 -1.21075
7 6.06958 8.64413 -1.60599
7 4.8876 8.20337 -2.73027
22
Atoms. Timestep: 10200000
1 2.21896 2.23911 -2.21411
2 1.89974 2.34682 -1.17749
1 2.19065 1.46478 -0.606972
1 0.816942 2.32188 -1.05487
3 2.58964 3.48407 -0.556543
4 1.99223 4.35631 -0.022394
5 3.99505 3.62607 -0.69633
6 4.43926 2.90128 -1.24172
2 4.89195 4.59059 -0.0675145
7 4.51458 4.69835 0.947013
2 6.34191 4.26223 -0.131523
1 6.65478 4.0531 -1.1545
1 6.92782 5.07474 0.298174
1 6.59683 3.3901 0.470567
3 4.60862 6.04009 -0.712477
4 5.5051 6.61138 -1.23506
5 3.39794 6.58091 -0.770267
6 2.70617 5.88319 -0.536299
2 2.95139 7.72367 -1.38026
7 3.59587 8.59318 -1.5095
7 2.34354 7.53396 -2.26492
7 2.16158 8.02203 -0.69085
22
Atoms. Timestep: 10400000
1 1.96835 1.11742 0.142764
2 2.25145 1.91671 -0.542138
1 1.57809 2.75052 -0.343576
1 2.11068 1.8191 -1.61859
3 3.5482 2.49325 -0.0732238
4 4.21391 1.81821 0.709163
5 3.78301 3.77239 -0.407193
6 3.19689 4.27466 -1.05857
2 4.89195 4.59059 -0.0675145
7 5.68016 3.90379 0.23632
2 5.43864 5.21048 -1.45377
1 4.57948 5.60584 -1.99565
1 6.15516 6.018 -1.3034
1 5.89835 4.53806 -2.17808
3 4.60831 5.57292 1.13279
4 4.91531 6.73623 0.993959
5 4.17566 4.99734 2.26388
6 3.98343 4.01252 2.14869
2 3.58435 5.71632 3.41212
7 3.73072 5.13778 4.32424
7 3.93453 6.74537 3.33131
7 2.50958 5.80098 3.25145
22
Atoms. Timestep: 10600000
1 4.56649 0.470321 -0.128994
2 4.91855 0.88892 0.813837
1 5.74076 0.272181 1.17674
1 4.12517 0.805476 1.55659
3 5.3379 2.33221 0.749977
4 6.09988 2.8331 1.58588
5 4.80799 3.13948 -0.165842
6 4.17709 2.68842 -0.812846
2 4.89195 4.59059 -0.0675145
7 5.92856 4.82498 0.174389
2 4.66116 5.35186 -1.44413
1 5.25673 4.79744 -2.1694
1 3.60917 5.49761 -1.68942
1 5.2673 6.2571 -1.40913
3 4.08178 5.35437 1.0462
4 3.04504 4.84202 1.51566
5 4.59487 6.56613 1.41555
6 5.40061 6.95538 0.947177
2 3.91009 7.66207 2.18483
7 4.33626 8.65012 2.01094
7 2.8428 7.54347 1.99794
7 4.12317 7.47372 3.23707
22
Atoms. Timestep: 10800000
1 3.94269 0.498944 -0.882483
2 4.9582 0.891286 -0.828514
1 5.62557 0.580811 -1.63246
1 5.35808 0.619961 0.148509
3 4.59541 2.35336 -0.964023
4 3.84757 2.73158 -1.84723
5 5.20732 3.16809 -0.14434
6 5.90239 2.80747 0.49358
2 4.89195 4.59059 -0.0675145
7 4.0832 4.78894 -0.773513
2 4.43349 5.21716 1.22697
1 4.30707 6.29202 1.09739
1 3.48623 4.78168 1.54502
1 5.17394 4.90241 1.96233
3 6.1511 5.37858 -0.642957
4 7.27971 5.43996 -0.140556
5 5.92863 6.06496 -1.78798
6 4.9877 6.12909 -2.14941
2 6.87283 7.027 -2.425
7 7.83386 6.6936 -2.03338
7 6.84524 7.07611 -3.51354
7 6.64854 8.01436 -2.02138
22
Atoms. Timestep: 11000000
1 2.84717 1.12864 -1.83492
2 2.25748 1.90604 -1.3491
1 1.37379 1.59114 -0.7941
1 1.93437 2.39341 -2.26898
3 2.90991 2.97651 -0.407431
4 2.34348 3.38174 0.573992
5 4.11441 3.50399 -0.757588
6 4.47981 3.20914 -1.65182
2 4.89195 4.59059 -0.0675145
7 4.44783 4.65604 0.923256
2 6.38442 4.27091 0.0155937
1 6.88638 4.37996 -0.945781
1 6.73917 4.79122 0.90527
1 6.58527 3.22831 0.262054
3 4.42828 5.90213 -0.827337
4 4.95501 6.25036 -1.92408
5 3.675 6.73545 0.0184355
6 3.30122 6.4542 0.913582
2 3.24942 8.10355 -0.442509
7 2.95484 8.80649 0.336724
7 4.12822 8.60713 -0.845254
7 2.4527 8.13404 -1.18576
22
Atoms. Timestep: 11200000
1 5.40269 0.378347 -1.55299
2 5.71972 1.00253 -0.71753
1 6.78574 1.08984 -0.927466
1 5.47793 0.645749 0.283642
3 4.98037 2.25987 -0.919547
4 4.21249 2.32354 -1.86442
5 5.36065 3.20589 -0.0774518
6 6.01881 3.03382 0.669084
2 4.89195 4.59059 -0.0675145
7 4.66849 4.79692 -1.11692
2 3.60437 4.64705 0.700412
1 2.86618 4.03522 0.181913
1 3.66192 4.42704 1.76643
1 3.17511 5.6215 0.467446
3 5.96199 5.48663 0.417059
4 6.94918 5.09785 1.04953
5 5.59537 6.80341 0.200363
6 4.75108 7.06013 -0.290921
2 6.18726 7.89844 0.922137
7 5.37593 8.52753 1.28833
7 6.64278 7.62207 1.87304
7 7.01519 8.38327 0.404857
22
Atoms. Timestep: 11400000
1 7.77354 2.31752 -2.82449
2 6.70646 2.50253 -2.70119
1 6.18424 1.63802 -2.2913
1 6.30926 2.70669 -3.6955
3 6.50562 3.70846 -1.70588
4 7.25804 4.66238 -1.72497
5 5.53188 3.56154 -0.80083
6 5.08098 2.68408 -0.584353
2 4.89195 4.59059 -0.0675145
7 5.45735 5.47826 -0.358066
2 3.42429 4.78706 -0.55861
1 2.99712 5.55829 0.0823388
1 3.48748 5.08433 -1.60538
1 2.99542 3.78503 -0.568561
3 5.09629 4.37241 1.49439
4 4.14284 4.55337 2.23298
5 6.26645 4.07338 1.94295
6 6.95303 4.05162 1.20252
2 6.63306 4.24427 3.36692
7 6.02752 3.6804 4.07647
7 7.66534 3.91515 3.24786
7 6.72537 5.29541 3.64021
22
Atoms. Timestep: 11600000
1 4.70198 2.06639 -3.34842
2 5.59615 1.97393 -2.73197
1 6.39703 2.66087 -3.00545
1 5.88021 0.9218 -2.7527
3 5.15607 2.50431 -1.35095
4 5.2415 1.77935 -0.358618
5 4.77048 3.72194 -1.29689
6 4.63852 4.29265 -2.11967
2 4.89195 4.59059 -0.0675145
7 5.48752 4.08871 0.691948
2 5.31698 6.00428 -0.442634